 Entering Gaussian System, Link 0=/usr/local/g09_a02/g09
 Input=suan-pbe0sp-pupbegeom.com
 Output=suan-pbe0sp-pupbegeom.log
 AtFile(1): /home/ik/gaussian09/An-SARC-DKH2.g09bas
            !
            ! SARC Basis set for Gaussian - to be included using the @ symbol.
            !
            ! - at beginning of spec indicates that Gaussian shouldn't throw an error if the atom isn't in the geometry
            !
            ! Basis set for element : Ac
            -Ac 0
             S  9  1.01.0
                 55109808.74124400      0.0312766245
                 25049913.06420200     -0.0204119520
                 11386324.12009200      0.0582795151
                 5175601.872769000      0.0047558262
                 2352546.305804000      0.0899377462
                 1069339.229911000      0.0775555648
                 486063.2863230000      0.1904178134
                 220937.8574200000      0.2641478696
                 100426.2988270000      0.4915549572
             S  1  1.0
                 45648.3176490000      1.0000000000
             S  1  1.0
                 20749.2352950000      1.0000000000
             S  1  1.0
                  9431.4705890000      1.0000000000
             S  1  1.0
                  4287.0320860000      1.0000000000
             S  1  1.0
                  1948.6509480000      1.0000000000
             S  1  1.0
                   885.7504310000      1.0000000000
             S  1  1.0
                   402.6138320000      1.0000000000
             S  1  1.0
                   183.0062870000      1.0000000000
             S  1  1.0
                    83.1846760000      1.0000000000
             S  1  1.0
                    37.8112160000      1.0000000000
             S  1  1.0
                    17.1869170000      1.0000000000
             S  1  1.0
                     7.8122350000      1.0000000000
             S  1  1.0
                     3.5510160000      1.0000000000
             S  1  1.0
                     1.6140980000      1.0000000000
             S  1  1.0
                     0.7336810000      1.0000000000
             S  1  1.0
                     0.3334910000      1.0000000000
             S  1  1.0
                     0.1515870000      1.0000000000
             S  1  1.0
                     0.0689030000      1.0000000000
             S  1  1.0
                     0.0313200000      1.0000000000
             S  1  1.0
                     0.0142360000      1.0000000000
             P  8  1.0
                782789.9000960001      0.0031757524
                326162.4583730000      0.0008406366
                135901.0243220000      0.0083656049
                 56625.4268010000      0.0126957020
                 23593.9278340000      0.0370008398
                  9830.8032640000      0.0908384712
                  4096.1680270000      0.2586186730
                  1706.7366780000      0.7139694175
             P  1  1.0
                   711.1402820000      1.0000000000
             P  1  1.0
                   296.3084510000      1.0000000000
             P  1  1.0
                   123.4618550000      1.0000000000
             P  1  1.0
                    51.4424390000      1.0000000000
             P  1  1.0
                    21.4343500000      1.0000000000
             P  1  1.0
                     8.9309790000      1.0000000000
             P  1  1.0
                     3.7212410000      1.0000000000
             P  1  1.0
                     1.5505170000      1.0000000000
             P  1  1.0
                     0.6460490000      1.0000000000
             P  1  1.0
                     0.2691870000      1.0000000000
             P  1  1.0
                     0.1121610000      1.0000000000
             P  1  1.0
                     0.0467340000      1.0000000000
             D  7  1.0
                 37896.8365590000      0.0001482612
                 15158.7346230000      0.0003702219
                  6063.4938490000      0.0020736881
                  2425.3975400000      0.0096748493
                   970.1590160000      0.0520379811
                   388.0636060000      0.2362709965
                   155.2254430000      0.7964725694
             D  1  1.0
                    62.0901770000      1.0000000000
             D  1  1.0
                    24.8360710000      1.0000000000
             D  1  1.0
                     9.9344280000      1.0000000000
             D  1  1.0
                     3.9737710000      1.0000000000
             D  1  1.0
                     1.5895090000      1.0000000000
             D  1  1.0
                     0.6358030000      1.0000000000
             D  1  1.0
                     0.2543210000      1.0000000000
             D  1  1.0
                     0.1017290000      1.0000000000
             D  1  1.0
                     0.0406910000      1.0000000000
             F  6  1.0
                  3860.7881580000      0.0000676369
                  1484.9185220000      0.0004993795
                   571.1225090000      0.0048810577
                   219.6625030000      0.0404316252
                    84.4855780000      0.2453229456
                    32.4944530000      0.8182721188
             F  1  1.0
                    12.4978670000      1.0000000000
             F  1  1.0
                     4.8068720000      1.0000000000
             F  1  1.0
                     1.8487970000      1.0000000000
             F  1  1.0
                     0.7110760000      1.0000000000
             F  1  1.0
                     0.2734910000      1.0000000000
             F  1  1.0
                     0.1051890000      1.0000000000
            ****
            ! Basis set for element : Th
            -Th 0
             S  9  1.0
                56363088.88971600      0.0318759066
                25619585.85896200     -0.0208607830
                11645266.29952800      0.0593104871
                5293302.863422000      0.0045173834
                2406046.756101000      0.0910942228
                1093657.616409000      0.0776539218
                497117.0983680000      0.1914375494
                225962.3174400000      0.2636687905
                102710.1442910000      0.4900758514
             S  1  1.0
                 46686.4292230000      1.0000000000
             S  1  1.0
                 21221.1041920000      1.0000000000
             S  1  1.0
                  9645.9564510000      1.0000000000
             S  1  1.0
                  4384.5256600000      1.0000000000
             S  1  1.0
                  1992.9662090000      1.0000000000
             S  1  1.0
                   905.8937310000      1.0000000000
             S  1  1.0
                   411.7698780000      1.0000000000
             S  1  1.0
                   187.1681260000      1.0000000000
             S  1  1.0
                    85.0764210000      1.0000000000
             S  1  1.0
                    38.6711000000      1.0000000000
             S  1  1.0
                    17.5777730000      1.0000000000
             S  1  1.0
                     7.9898970000      1.0000000000
             S  1  1.0
                     3.6317710000      1.0000000000
             S  1  1.0
                     1.6508050000      1.0000000000
             S  1  1.0
                     0.7503660000      1.0000000000
             S  1  1.0
                     0.3410750000      1.0000000000
             S  1  1.0
                     0.1550340000      1.0000000000
             S  1  1.0
                     0.0704700000      1.0000000000
             S  1  1.0
                     0.0320320000      1.0000000000
             S  1  1.0
                     0.0145600000      1.0000000000
             P  8  1.0
                801557.4232150000      0.0032622731
                333982.2596730000      0.0008569025
                139159.2748640000      0.0085578818
                 57983.0311930000      0.0129143706
                 24159.5963310000      0.0375326683
                 10066.4984710000      0.0916129238
                  4194.3743630000      0.2594858133
                  1747.6559850000      0.7123765928
             P  1  1.0
                   728.1899940000      1.0000000000
             P  1  1.0
                   303.4124970000      1.0000000000
             P  1  1.0
                   126.4218740000      1.0000000000
             P  1  1.0
                    52.6757810000      1.0000000000
             P  1  1.0
                    21.9482420000      1.0000000000
             P  1  1.0
                     9.1451010000      1.0000000000
             P  1  1.0
                     3.8104590000      1.0000000000
             P  1  1.0
                     1.5876910000      1.0000000000
             P  1  1.0
                     0.6615380000      1.0000000000
             P  1  1.0
                     0.2756410000      1.0000000000
             P  1  1.0
                     0.1148500000      1.0000000000
             P  1  1.0
                     0.0478540000      1.0000000000
             D  7  1.0
                 38933.2915440000      0.0001513887
                 15573.3166180000      0.0003759661
                  6229.3266470000      0.0020977831
                  2491.7306590000      0.0097347616
                   996.6922640000      0.0521624557
                   398.6769050000      0.2362677556
                   159.4707620000      0.7964070682
             D  1  1.0
                    63.7883050000      1.0000000000
             D  1  1.0
                    25.5153220000      1.0000000000
             D  1  1.0
                    10.2061290000      1.0000000000
             D  1  1.0
                     4.0824520000      1.0000000000
             D  1  1.0
                     1.6329810000      1.0000000000
             D  1  1.0
                     0.6531920000      1.0000000000
             D  1  1.0
                     0.2612770000      1.0000000000
             D  1  1.0
                     0.1045110000      1.0000000000
             D  1  1.0
                     0.0418040000      1.0000000000
             F  6  1.0
                  4035.8413290000      0.0000665503
                  1552.2466650000      0.0004925640
                   597.0179480000      0.0047782956
                   229.6222880000      0.0397489860
                    88.3162650000      0.2429834827
                    33.9677940000      0.8203559595
             F  1  1.0
                    13.0645360000      1.0000000000
             F  1  1.0
                     5.0248220000      1.0000000000
             F  1  1.0
                     1.9326240000      1.0000000000
             F  1  1.0
                     0.7433170000      1.0000000000
             F  1  1.0
                     0.2858910000      1.0000000000
             F  1  1.0
                     0.1099580000      1.0000000000
            ****
            ! Basis set for element : Pa
            -Pa 0
             S  9  1.0
                57631858.17253400      0.0324936320
                26196299.16933400     -0.0213243242
                11907408.71333400      0.0603713014
                5412458.506061000      0.0042675023
                2460208.411846000      0.0922786745
                1118276.550839000      0.0777436539
                508307.5231090000      0.1924734529
                231048.8741400000      0.2631671960
                105022.2155180000      0.4885848292
             S  1  1.0
                 47737.3706900000      1.0000000000
             S  1  1.0
                 21698.8048590000      1.0000000000
             S  1  1.0
                  9863.0931180000      1.0000000000
             S  1  1.0
                  4483.2241440000      1.0000000000
             S  1  1.0
                  2037.8291570000      1.0000000000
             S  1  1.0
                   926.2859800000      1.0000000000
             S  1  1.0
                   421.0390820000      1.0000000000
             S  1  1.0
                   191.3814010000      1.0000000000
             S  1  1.0
                    86.9915460000      1.0000000000
             S  1  1.0
                    39.5416120000      1.0000000000
             S  1  1.0
                    17.9734600000      1.0000000000
             S  1  1.0
                     8.1697540000      1.0000000000
             S  1  1.0
                     3.7135250000      1.0000000000
             S  1  1.0
                     1.6879660000      1.0000000000
             S  1  1.0
                     0.7672570000      1.0000000000
             S  1  1.0
                     0.3487530000      1.0000000000
             S  1  1.0
                     0.1585240000      1.0000000000
             S  1  1.0
                     0.0720560000      1.0000000000
             S  1  1.0
                     0.0327530000      1.0000000000
             S  1  1.0
                     0.0148880000      1.0000000000
             P  8  1.0
                820588.6600690000      0.0033507411
                341911.9416950000      0.0008734200
                142463.3090400000      0.0087537475
                 59359.7121000000      0.0131359375
                 24733.2133750000      0.0380705333
                 10305.5055730000      0.0923923439
                  4293.9606550000      0.2603540937
                  1789.1502730000      0.7107726266
             P  1  1.0
                   745.4792800000      1.0000000000
             P  1  1.0
                   310.6163670000      1.0000000000
             P  1  1.0
                   129.4234860000      1.0000000000
             P  1  1.0
                    53.9264530000      1.0000000000
             P  1  1.0
                    22.4693550000      1.0000000000
             P  1  1.0
                     9.3622310000      1.0000000000
             P  1  1.0
                     3.9009300000      1.0000000000
             P  1  1.0
                     1.6253870000      1.0000000000
             P  1  1.0
                     0.6772450000      1.0000000000
             P  1  1.0
                     0.2821850000      1.0000000000
             P  1  1.0
                     0.1175770000      1.0000000000
             P  1  1.0
                     0.0489910000      1.0000000000
             D  7  1.0
                 39984.8312080000      0.0001545696
                 15993.9324830000      0.0003818697
                  6397.5729930000      0.0021222331
                  2559.0291970000      0.0097968379
                  1023.6116790000      0.0522921295
                   409.4446720000      0.2362850042
                   163.7778690000      0.7963212840
             D  1  1.0
                    65.5111470000      1.0000000000
             D  1  1.0
                    26.2044590000      1.0000000000
             D  1  1.0
                    10.4817840000      1.0000000000
             D  1  1.0
                     4.1927130000      1.0000000000
             D  1  1.0
                     1.6770850000      1.0000000000
             D  1  1.0
                     0.6708340000      1.0000000000
             D  1  1.0
                     0.2683340000      1.0000000000
             D  1  1.0
                     0.1073330000      1.0000000000
             D  1  1.0
                     0.0429330000      1.0000000000
             F  6  1.0
                  4212.3892570000      0.0000656512
                  1620.1497140000      0.0004867345
                   623.1345050000      0.0046875705
                   239.6671170000      0.0391377282
                    92.1796610000      0.2408751552
                    35.4537160000      0.8222271707
             F  1  1.0
                    13.6360440000      1.0000000000
             F  1  1.0
                     5.2446320000      1.0000000000
             F  1  1.0
                     2.0171660000      1.0000000000
             F  1  1.0
                     0.7758330000      1.0000000000
             F  1  1.0
                     0.2983970000      1.0000000000
             F  1  1.0
                     0.1147680000      1.0000000000
            ****
            ! Basis set for element : U
            -U 0
             S  9  1.0
                58915269.20406200      0.0331306134
                26779667.82002800     -0.0218032405
                12172576.28183100      0.0614632410
                5532989.219014000      0.0040056242
                2514995.099552000      0.0934922512
                1143179.590705000      0.0778243085
                519627.0866840000      0.1935262084
                236194.1303110000      0.2626421889
                107360.9683230000      0.4870813929
             S  1  1.0
                 48800.4401470000      1.0000000000
             S  1  1.0
                 22182.0182490000      1.0000000000
             S  1  1.0
                 10082.7355680000      1.0000000000
             S  1  1.0
                  4583.0616220000      1.0000000000
             S  1  1.0
                  2083.2098280000      1.0000000000
             S  1  1.0
                   946.9135580000      1.0000000000
             S  1  1.0
                   430.4152540000      1.0000000000
             S  1  1.0
                   195.6432970000      1.0000000000
             S  1  1.0
                    88.9287710000      1.0000000000
             S  1  1.0
                    40.4221690000      1.0000000000
             S  1  1.0
                    18.3737130000      1.0000000000
             S  1  1.0
                     8.3516880000      1.0000000000
             S  1  1.0
                     3.7962220000      1.0000000000
             S  1  1.0
                     1.7255550000      1.0000000000
             S  1  1.0
                     0.7843430000      1.0000000000
             S  1  1.0
                     0.3565200000      1.0000000000
             S  1  1.0
                     0.1620540000      1.0000000000
             S  1  1.0
                     0.0736610000      1.0000000000
             S  1  1.0
                     0.0334820000      1.0000000000
             S  1  1.0
                     0.0152190000      1.0000000000
             P  8  1.0
                839813.6669700000      0.0034411220
                349922.3612380000      0.0008901889
                145800.9838490000      0.0089531291
                 60750.4099370000      0.0133603309
                 25312.6708070000      0.0386144089
                 10546.9461700000      0.0931768584
                  4394.5609040000      0.2612253423
                  1831.0670430000      0.7091556378
             P  1  1.0
                   762.9446010000      1.0000000000
             P  1  1.0
                   317.8935840000      1.0000000000
             P  1  1.0
                   132.4556600000      1.0000000000
             P  1  1.0
                    55.1898580000      1.0000000000
             P  1  1.0
                    22.9957740000      1.0000000000
             P  1  1.0
                     9.5815730000      1.0000000000
             P  1  1.0
                     3.9923220000      1.0000000000
             P  1  1.0
                     1.6634670000      1.0000000000
             P  1  1.0
                     0.6931110000      1.0000000000
             P  1  1.0
                     0.2887960000      1.0000000000
             P  1  1.0
                     0.1203320000      1.0000000000
             P  1  1.0
                     0.0501380000      1.0000000000
             D  7  1.0
                 41049.8202270000      0.0001578167
                 16419.9280910000      0.0003878999
                  6567.9712360000      0.0021472035
                  2627.1884950000      0.0098608714
                  1050.8753980000      0.0524286051
                   420.3501590000      0.2363168740
                   168.1400640000      0.7962195195
             D  1  1.0
                    67.2560250000      1.0000000000
             D  1  1.0
                    26.9024100000      1.0000000000
             D  1  1.0
                    10.7609640000      1.0000000000
             D  1  1.0
                     4.3043860000      1.0000000000
             D  1  1.0
                     1.7217540000      1.0000000000
             D  1  1.0
                     0.6887020000      1.0000000000
             D  1  1.0
                     0.2754810000      1.0000000000
             D  1  1.0
                     0.1101920000      1.0000000000
             D  1  1.0
                     0.0440770000      1.0000000000
             F  6  1.0
                  4391.9602590000      0.0000648280
                  1689.2154840000      0.0004816285
                   649.6982630000      0.0046032038
                   249.8839470000      0.0385657246
                    96.1092110000      0.2388464606
                    36.9650810000      0.8240173974
             F  1  1.0
                    14.2173390000      1.0000000000
             F  1  1.0
                     5.4682070000      1.0000000000
             F  1  1.0
                     2.1031570000      1.0000000000
             F  1  1.0
                     0.8089060000      1.0000000000
             F  1  1.0
                     0.3111180000      1.0000000000
             F  1  1.0
                     0.1196610000      1.0000000000
            ****
            ! Basis set for element : Np
            -Np 0
             S  9  1.0
                60212393.78258100      0.0337877053
                27369269.90117300     -0.0222982323
                12440577.22780600      0.0625876540
                5654807.830821000      0.0037311573
                2570367.195828000      0.0947361564
                1168348.725376000      0.0778954004
                531067.6024440000      0.1945965254
                241394.3647470000      0.2620928230
                109724.7112490000      0.4855650387
             S  1  1.0
                 49874.8687490000      1.0000000000
             S  1  1.0
                 22670.3948860000      1.0000000000
             S  1  1.0
                 10304.7249480000      1.0000000000
             S  1  1.0
                  4683.9658860000      1.0000000000
             S  1  1.0
                  2129.0754030000      1.0000000000
             S  1  1.0
                   967.7615470000      1.0000000000
             S  1  1.0
                   439.8916120000      1.0000000000
             S  1  1.0
                   199.9507330000      1.0000000000
             S  1  1.0
                    90.8866970000      1.0000000000
             S  1  1.0
                    41.3121350000      1.0000000000
             S  1  1.0
                    18.7782430000      1.0000000000
             S  1  1.0
                     8.5355650000      1.0000000000
             S  1  1.0
                     3.8798020000      1.0000000000
             S  1  1.0
                     1.7635460000      1.0000000000
             S  1  1.0
                     0.8016120000      1.0000000000
             S  1  1.0
                     0.3643690000      1.0000000000
             S  1  1.0
                     0.1656220000      1.0000000000
             S  1  1.0
                     0.0752830000      1.0000000000
             S  1  1.0
                     0.0342190000      1.0000000000
             S  1  1.0
                     0.0155540000      1.0000000000
             P  8  1.0
                859302.8310040000      0.0035335599
                358042.8462520000      0.0009072179
                149184.5192720000      0.0091562829
                 62160.2163630000      0.0135877381
                 25900.0901510000      0.0391645831
                 10791.7042300000      0.0939664749
                  4496.5434290000      0.2620978347
                  1873.5597620000      0.7075269947
             P  1  1.0
                   780.6499010000      1.0000000000
             P  1  1.0
                   325.2707920000      1.0000000000
             P  1  1.0
                   135.5294970000      1.0000000000
             P  1  1.0
                    56.4706240000      1.0000000000
             P  1  1.0
                    23.5294270000      1.0000000000
             P  1  1.0
                     9.8039280000      1.0000000000
             P  1  1.0
                     4.0849700000      1.0000000000
             P  1  1.0
                     1.7020710000      1.0000000000
             P  1  1.0
                     0.7091960000      1.0000000000
             P  1  1.0
                     0.2954980000      1.0000000000
             P  1  1.0
                     0.1231240000      1.0000000000
             P  1  1.0
                     0.0513020000      1.0000000000
             D  7  1.0
                 42129.4422870000      0.0001611265
                 16851.7769150000      0.0003940653
                  6740.7107660000      0.0021726234
                  2696.2843060000      0.0099267939
                  1078.5137230000      0.0525706620
                   431.4054890000      0.2363631910
                   172.5621960000      0.7961024818
             D  1  1.0
                    69.0248780000      1.0000000000
             D  1  1.0
                    27.6099510000      1.0000000000
             D  1  1.0
                    11.0439810000      1.0000000000
             D  1  1.0
                     4.4175920000      1.0000000000
             D  1  1.0
                     1.7670370000      1.0000000000
             D  1  1.0
                     0.7068150000      1.0000000000
             D  1  1.0
                     0.2827260000      1.0000000000
             D  1  1.0
                     0.1130900000      1.0000000000
             D  1  1.0
                     0.0452360000      1.0000000000
             F  6  1.0
                  4574.1842730000      0.0000640986
                  1759.3016440000      0.0004772097
                   676.6544780000      0.0045257498
                   260.2517220000      0.0380362075
                   100.0968160000      0.2369289742
                    38.4987760000      0.8257014451
             F  1  1.0
                    14.8072210000      1.0000000000
             F  1  1.0
                     5.6950850000      1.0000000000
             F  1  1.0
                     2.1904170000      1.0000000000
             F  1  1.0
                     0.8424680000      1.0000000000
             F  1  1.0
                     0.3240260000      1.0000000000
             F  1  1.0
                     0.1246250000      1.0000000000
            ****
            ! Basis set for element : Pu
            -Pu 0
             S  9  1.0
                61522220.62252900      0.0344658099
                27964645.73751300     -0.0228100400
                12711202.60796100      0.0637459626
                5777819.367255000      0.0034434745
                2626281.530570000      0.0960116578
                1193764.332077000      0.0779564129
                542620.1509440000      0.1956851492
                246645.5231560000      0.2615180971
                112111.6014350000      0.4840352422
             S  1  1.0
                 50959.8188340000      1.0000000000
             S  1  1.0
                 23163.5540150000      1.0000000000
             S  1  1.0
                 10528.8881890000      1.0000000000
             S  1  1.0
                  4785.8582680000      1.0000000000
             S  1  1.0
                  2175.3901220000      1.0000000000
             S  1  1.0
                   988.8136920000      1.0000000000
             S  1  1.0
                   449.4607690000      1.0000000000
             S  1  1.0
                   204.3003500000      1.0000000000
             S  1  1.0
                    92.8637950000      1.0000000000
             S  1  1.0
                    42.2108160000      1.0000000000
             S  1  1.0
                    19.1867350000      1.0000000000
             S  1  1.0
                     8.7212430000      1.0000000000
             S  1  1.0
                     3.9642010000      1.0000000000
             S  1  1.0
                     1.8019100000      1.0000000000
             S  1  1.0
                     0.8190500000      1.0000000000
             S  1  1.0
                     0.3722950000      1.0000000000
             S  1  1.0
                     0.1692250000      1.0000000000
             S  1  1.0
                     0.0769210000      1.0000000000
             S  1  1.0
                     0.0349640000      1.0000000000
             S  1  1.0
                     0.0158930000      1.0000000000
             P  8  1.0
                879013.3813660000      0.0036280441
                366255.5755690000      0.0009245055
                152606.4898210000      0.0093631710
                 63586.0374250000      0.0138180947
                 26494.1822610000      0.0397209745
                 11039.2426090000      0.0947610975
                  4599.6844200000      0.2629722435
                  1916.5351750000      0.7058860729
             P  1  1.0
                   798.5563230000      1.0000000000
             P  1  1.0
                   332.7318010000      1.0000000000
             P  1  1.0
                   138.6382510000      1.0000000000
             P  1  1.0
                    57.7659380000      1.0000000000
             P  1  1.0
                    24.0691410000      1.0000000000
             P  1  1.0
                    10.0288090000      1.0000000000
             P  1  1.0
                     4.1786700000      1.0000000000
             P  1  1.0
                     1.7411130000      1.0000000000
             P  1  1.0
                     0.7254640000      1.0000000000
             P  1  1.0
                     0.3022760000      1.0000000000
             P  1  1.0
                     0.1259490000      1.0000000000
             P  1  1.0
                     0.0524790000      1.0000000000
             D  7  1.0
                 43223.8765000000      0.0001644977
                 17289.5506000000      0.0004003774
                  6915.8202400000      0.0021984643
                  2766.3280960000      0.0099946905
                  1106.5312380000      0.0527180463
                   442.6124950000      0.2364259417
                   177.0449980000      0.7959685659
             D  1  1.0
                    70.8179990000      1.0000000000
             D  1  1.0
                    28.3272000000      1.0000000000
             D  1  1.0
                    11.3308800000      1.0000000000
             D  1  1.0
                     4.5323520000      1.0000000000
             D  1  1.0
                     1.8129410000      1.0000000000
             D  1  1.0
                     0.7251760000      1.0000000000
             D  1  1.0
                     0.2900710000      1.0000000000
             D  1  1.0
                     0.1160280000      1.0000000000
             D  1  1.0
                     0.0464110000      1.0000000000
             F  6  1.0
                  4758.8680260000      0.0000634702
                  1830.3338560000      0.0004734278
                   703.9745600000      0.0044552586
                   270.7594460000      0.0375494378
                   104.1382490000      0.2351391900
                    40.0531730000      0.8272671140
             F  1  1.0
                    15.4050660000      1.0000000000
             F  1  1.0
                     5.9250260000      1.0000000000
             F  1  1.0
                     2.2788560000      1.0000000000
             F  1  1.0
                     0.8764830000      1.0000000000
             F  1  1.0
                     0.3371090000      1.0000000000
             F  1  1.0
                     0.1296570000      1.0000000000
            ****
            ! Basis set for element : Am
            -Am 0
             S  9  1.0
                62843653.32610500      0.0351658825
                28565296.96641200     -0.0233394478
                12984225.89382300      0.0649396714
                5901920.860829000      0.0031419101
                2682691.300377000      0.0973200958
                1219405.136535000      0.0780067978
                554275.0620610000      0.1967928683
                251943.2100280000      0.2609169513
                114519.6409220000      0.4824914468
             S  1  1.0
                 52054.3822370000      1.0000000000
             S  1  1.0
                 23661.0828350000      1.0000000000
             S  1  1.0
                 10755.0376520000      1.0000000000
             S  1  1.0
                  4888.6534780000      1.0000000000
             S  1  1.0
                  2222.1152170000      1.0000000000
             S  1  1.0
                  1010.0523720000      1.0000000000
             S  1  1.0
                   459.1147140000      1.0000000000
             S  1  1.0
                   208.6885070000      1.0000000000
             S  1  1.0
                    94.8584120000      1.0000000000
             S  1  1.0
                    43.1174600000      1.0000000000
             S  1  1.0
                    19.5988450000      1.0000000000
             S  1  1.0
                     8.9085660000      1.0000000000
             S  1  1.0
                     4.0493480000      1.0000000000
             S  1  1.0
                     1.8406130000      1.0000000000
             S  1  1.0
                     0.8366420000      1.0000000000
             S  1  1.0
                     0.3802920000      1.0000000000
             S  1  1.0
                     0.1728600000      1.0000000000
             S  1  1.0
                     0.0785730000      1.0000000000
             S  1  1.0
                     0.0357150000      1.0000000000
             S  1  1.0
                     0.0162340000      1.0000000000
             P  8  1.0
                898929.0904960000      0.0037246164
                374553.7877070000      0.0009420557
                156064.0782110000      0.0095738607
                 65026.6992550000      0.0140514412
                 27094.4580230000      0.0402836985
                 11289.3575090000      0.0955608348
                  4703.8989620000      0.2638489693
                  1959.9579010000      0.7042322614
             P  1  1.0
                   816.6491250000      1.0000000000
             P  1  1.0
                   340.2704690000      1.0000000000
             P  1  1.0
                   141.7793620000      1.0000000000
             P  1  1.0
                    59.0747340000      1.0000000000
             P  1  1.0
                    24.6144730000      1.0000000000
             P  1  1.0
                    10.2560300000      1.0000000000
             P  1  1.0
                     4.2733460000      1.0000000000
             P  1  1.0
                     1.7805610000      1.0000000000
             P  1  1.0
                     0.7419000000      1.0000000000
             P  1  1.0
                     0.3091250000      1.0000000000
             P  1  1.0
                     0.1288020000      1.0000000000
             P  1  1.0
                     0.0536680000      1.0000000000
             D  7  1.0
                 44331.4203980000      0.0001679383
                 17732.5681590000      0.0004068217
                  7093.0272640000      0.0022248332
                  2837.2109050000      0.0100645341
                  1134.8843620000      0.0528720089
                   453.9537450000      0.2365032043
                   181.5814980000      0.7958188325
             D  1  1.0
                    72.6325990000      1.0000000000
             D  1  1.0
                    29.0530400000      1.0000000000
             D  1  1.0
                    11.6212160000      1.0000000000
             D  1  1.0
                     4.6484860000      1.0000000000
             D  1  1.0
                     1.8593950000      1.0000000000
             D  1  1.0
                     0.7437580000      1.0000000000
             D  1  1.0
                     0.2975030000      1.0000000000
             D  1  1.0
                     0.1190010000      1.0000000000
             D  1  1.0
                     0.0476010000      1.0000000000
             F  6  1.0
                  4946.8424820000      0.0000628938
                  1902.6317240000      0.0004701484
                   731.7814320000      0.0043891511
                   281.4543970000      0.0370904453
                   108.2516910000      0.2334062650
                    41.6352660000      0.8287755370
             F  1  1.0
                    16.0135640000      1.0000000000
             F  1  1.0
                     6.1590630000      1.0000000000
             F  1  1.0
                     2.3688700000      1.0000000000
             F  1  1.0
                     0.9111040000      1.0000000000
             F  1  1.0
                     0.3504250000      1.0000000000
             F  1  1.0
                     0.1347790000      1.0000000000
            ****
            ! Basis set for element : Cm
            -Cm 0
             S  9  1.0
                64183659.71228800      0.0358890046
                29174390.77831300     -0.0238873385
                13261086.71741500      0.0661705007
                6027766.689734000      0.0028257430
                2739893.949879000      0.0986630440
                1245406.340854000      0.0780460170
                566093.7912970000      0.1979206486
                257315.3596810000      0.2602882009
                116961.5271280000      0.4809328290
             S  1  1.0
                 53164.3305130000      1.0000000000
             S  1  1.0
                 24165.6047780000      1.0000000000
             S  1  1.0
                 10984.3658080000      1.0000000000
             S  1  1.0
                  4992.8935490000      1.0000000000
             S  1  1.0
                  2269.4970680000      1.0000000000
             S  1  1.0
                  1031.5895760000      1.0000000000
             S  1  1.0
                   468.9043530000      1.0000000000
             S  1  1.0
                   213.1383420000      1.0000000000
             S  1  1.0
                    96.8810650000      1.0000000000
             S  1  1.0
                    44.0368480000      1.0000000000
             S  1  1.0
                    20.0167490000      1.0000000000
             S  1  1.0
                     9.0985220000      1.0000000000
             S  1  1.0
                     4.1356920000      1.0000000000
             S  1  1.0
                     1.8798600000      1.0000000000
             S  1  1.0
                     0.8544820000      1.0000000000
             S  1  1.0
                     0.3884010000      1.0000000000
             S  1  1.0
                     0.1765460000      1.0000000000
             S  1  1.0
                     0.0802480000      1.0000000000
             S  1  1.0
                     0.0364760000      1.0000000000
             S  1  1.0
                     0.0165800000      1.0000000000
             P  8  1.0
                919065.4160050000      0.0038233559
                382943.9233360000      0.0009598734
                159559.9680560000      0.0097884845
                 66483.3200240000      0.0142878620
                 27701.3833430000      0.0408529100
                 11542.2430600000      0.0963657199
                  4809.2679420000      0.2647275734
                  2003.8616420000      0.7025657657
             P  1  1.0
                   834.9423510000      1.0000000000
             P  1  1.0
                   347.8926460000      1.0000000000
             P  1  1.0
                   144.9552690000      1.0000000000
             P  1  1.0
                    60.3980290000      1.0000000000
             P  1  1.0
                    25.1658450000      1.0000000000
             P  1  1.0
                    10.4857690000      1.0000000000
             P  1  1.0
                     4.3690700000      1.0000000000
             P  1  1.0
                     1.8204460000      1.0000000000
             P  1  1.0
                     0.7585190000      1.0000000000
             P  1  1.0
                     0.3160500000      1.0000000000
             P  1  1.0
                     0.1316870000      1.0000000000
             P  1  1.0
                     0.0548700000      1.0000000000
             D  7  1.0
                 45453.5554980000      0.0001714478
                 18181.4221990000      0.0004133915
                  7272.5688800000      0.0022516908
                  2909.0275520000      0.0101360687
                  1163.6110210000      0.0530312799
                   465.4444080000      0.2365910587
                   186.1777630000      0.7956572424
             D  1  1.0
                    74.4711050000      1.0000000000
             D  1  1.0
                    29.7884420000      1.0000000000
             D  1  1.0
                    11.9153770000      1.0000000000
             D  1  1.0
                     4.7661510000      1.0000000000
             D  1  1.0
                     1.9064600000      1.0000000000
             D  1  1.0
                     0.7625840000      1.0000000000
             D  1  1.0
                     0.3050340000      1.0000000000
             D  1  1.0
                     0.1220130000      1.0000000000
             D  1  1.0
                     0.0488050000      1.0000000000
             F  6  1.0
                  5137.9626210000      0.0000623692
                  1976.1394700000      0.0004673406
                   760.0536420000      0.0043272570
                   292.3283240000      0.0366582974
                   112.4339710000      0.2317312383
                    43.2438350000      0.8302266034
             F  1  1.0
                    16.6322440000      1.0000000000
             F  1  1.0
                     6.3970170000      1.0000000000
             F  1  1.0
                     2.4603910000      1.0000000000
             F  1  1.0
                     0.9463040000      1.0000000000
             F  1  1.0
                     0.3639630000      1.0000000000
             F  1  1.0
                     0.1399860000      1.0000000000
            ****
            ! Basis set for element : Bk
            -Bk 0
             S  9  1.0
                65541743.54207900      0.0366362262
                29791701.61003600     -0.0244545791
                13541682.55001600      0.0674400979
                6155310.250007000      0.0024942219
                2797868.295458000      0.1000419508
                1271758.316117000      0.0780734218
                578071.9618710000      0.1990693119
                262759.9826690000      0.2596306533
                119436.3557590000      0.4793588927
             S  1  1.0
                 54289.2526180000      1.0000000000
             S  1  1.0
                 24676.9330080000      1.0000000000
             S  1  1.0
                 11216.7877310000      1.0000000000
             S  1  1.0
                  5098.5398780000      1.0000000000
             S  1  1.0
                  2317.5181260000      1.0000000000
             S  1  1.0
                  1053.4173300000      1.0000000000
             S  1  1.0
                   478.8260590000      1.0000000000
             S  1  1.0
                   217.6482090000      1.0000000000
             S  1  1.0
                    98.9310040000      1.0000000000
             S  1  1.0
                    44.9686380000      1.0000000000
             S  1  1.0
                    20.4402900000      1.0000000000
             S  1  1.0
                     9.2910410000      1.0000000000
             S  1  1.0
                     4.2232000000      1.0000000000
             S  1  1.0
                     1.9196370000      1.0000000000
             S  1  1.0
                     0.8725620000      1.0000000000
             S  1  1.0
                     0.3966190000      1.0000000000
             S  1  1.0
                     0.1802810000      1.0000000000
             S  1  1.0
                     0.0819460000      1.0000000000
             S  1  1.0
                     0.0372480000      1.0000000000
             S  1  1.0
                     0.0169310000      1.0000000000
             P  8  1.0
                939440.7605340000      0.0039243336
                391433.6502220000      0.0009779604
                163097.3542590000      0.0100071543
                 67957.2309410000      0.0145274046
                 28315.5128920000      0.0414286822
                 11798.1303720000      0.0971756151
                  4915.8876550000      0.2656073518
                  2048.2865230000      0.7008871987
             P  1  1.0
                   853.4527180000      1.0000000000
             P  1  1.0
                   355.6052990000      1.0000000000
             P  1  1.0
                   148.1688750000      1.0000000000
             P  1  1.0
                    61.7370310000      1.0000000000
             P  1  1.0
                    25.7237630000      1.0000000000
             P  1  1.0
                    10.7182350000      1.0000000000
             P  1  1.0
                     4.4659310000      1.0000000000
             P  1  1.0
                     1.8608050000      1.0000000000
             P  1  1.0
                     0.7753350000      1.0000000000
             P  1  1.0
                     0.3230560000      1.0000000000
             P  1  1.0
                     0.1346070000      1.0000000000
             P  1  1.0
                     0.0560860000      1.0000000000
             D  7  1.0
                 46590.6458960000      0.0001750203
                 18636.2583580000      0.0004201197
                  7454.5033430000      0.0022789545
                  2981.8013370000      0.0102096143
                  1192.7205350000      0.0531954810
                   477.0882140000      0.2366963299
                   190.8352860000      0.7954780716
             D  1  1.0
                    76.3341140000      1.0000000000
             D  1  1.0
                    30.5336460000      1.0000000000
             D  1  1.0
                    12.2134580000      1.0000000000
             D  1  1.0
                     4.8853830000      1.0000000000
             D  1  1.0
                     1.9541530000      1.0000000000
             D  1  1.0
                     0.7816610000      1.0000000000
             D  1  1.0
                     0.3126650000      1.0000000000
             D  1  1.0
                     0.1250660000      1.0000000000
             D  1  1.0
                     0.0500260000      1.0000000000
             F  6  1.0
                  5327.8457110000      0.0000619947
                  2049.1714270000      0.0004653579
                   788.1428570000      0.0042749941
                   303.1318680000      0.0362878121
                   116.5891800000      0.2302770619
                    44.8419920000      0.8314823055
             F  1  1.0
                    17.2469200000      1.0000000000
             F  1  1.0
                     6.6334310000      1.0000000000
             F  1  1.0
                     2.5513200000      1.0000000000
             F  1  1.0
                     0.9812770000      1.0000000000
             F  1  1.0
                     0.3774140000      1.0000000000
             F  1  1.0
                     0.1451590000      1.0000000000
            ****
            !  Basis set for element : Cf
            -Cf 0
             S  9  1.0
                66908672.67153500      0.0374085968
                30413033.03251600     -0.0250420417
                13824105.92387100      0.0687500948
                6283684.510850000      0.0021465649
                2856220.232205000      0.1014582118
                1298281.923729000      0.0780882908
                590128.1471500000      0.2002396174
                268240.0668860000      0.2589431115
                121927.3031300000      0.4777692911
             S  1  1.0
                 55421.5014230000      1.0000000000
             S  1  1.0
                 25191.5915560000      1.0000000000
             S  1  1.0
                 11450.7234340000      1.0000000000
             S  1  1.0
                  5204.8742880000      1.0000000000
             S  1  1.0
                  2365.8519490000      1.0000000000
             S  1  1.0
                  1075.3872500000      1.0000000000
             S  1  1.0
                   488.8123860000      1.0000000000
             S  1  1.0
                   222.1874480000      1.0000000000
             S  1  1.0
                   100.9942950000      1.0000000000
             S  1  1.0
                    45.9064980000      1.0000000000
             S  1  1.0
                    20.8665900000      1.0000000000
             S  1  1.0
                     9.4848140000      1.0000000000
             S  1  1.0
                     4.3112790000      1.0000000000
             S  1  1.0
                     1.9596720000      1.0000000000
             S  1  1.0
                     0.8907600000      1.0000000000
             S  1  1.0
                     0.4048910000      1.0000000000
             S  1  1.0
                     0.1840410000      1.0000000000
             S  1  1.0
                     0.0836550000      1.0000000000
             S  1  1.0
                     0.0380250000      1.0000000000
             S  1  1.0
                     0.0172840000      1.0000000000
             P  8  1.0
                960041.3086390001      0.0040276045
                400017.2119330000      0.0009963220
                166673.8383050000      0.0102299597
                 69447.4326270000      0.0147701296
                 28936.4302610000      0.0420111673
                 12056.8459420000      0.0979906843
                  5023.6858090000      0.2664887009
                  2093.2024210000      0.6991958875
             P  1  1.0
                   872.1676750000      1.0000000000
             P  1  1.0
                   363.4031980000      1.0000000000
             P  1  1.0
                   151.4179990000      1.0000000000
             P  1  1.0
                    63.0908330000      1.0000000000
             P  1  1.0
                    26.2878470000      1.0000000000
             P  1  1.0
                    10.9532700000      1.0000000000
             P  1  1.0
                     4.5638620000      1.0000000000
             P  1  1.0
                     1.9016090000      1.0000000000
             P  1  1.0
                     0.7923370000      1.0000000000
             P  1  1.0
                     0.3301410000      1.0000000000
             P  1  1.0
                     0.1375590000      1.0000000000
             P  1  1.0
                     0.0573160000      1.0000000000
             D  7  1.0
                 47740.9667690000      0.0001786657
                 19096.3867080000      0.0004269828
                  7638.5546830000      0.0023067483
                  3055.4218730000      0.0102850279
                  1222.1687490000      0.0533657826
                   488.8675000000      0.2368148452
                   195.5470000000      0.7952843597
             D  1  1.0
                    78.2188000000      1.0000000000
             D  1  1.0
                    31.2875200000      1.0000000000
             D  1  1.0
                    12.5150080000      1.0000000000
             D  1  1.0
                     5.0060030000      1.0000000000
             D  1  1.0
                     2.0024010000      1.0000000000
             D  1  1.0
                     0.8009610000      1.0000000000
             D  1  1.0
                     0.3203840000      1.0000000000
             D  1  1.0
                     0.1281540000      1.0000000000
             D  1  1.0
                     0.0512610000      1.0000000000
             F  6  1.0
                  5522.2215080000      0.0000616371
                  2123.9313490000      0.0004636186
                   816.8966730000      0.0042245181
                   314.1910280000      0.0359285881
                   120.8427030000      0.2288308799
                    46.4779630000      0.8327258043
             F  1  1.0
                    17.8761400000      1.0000000000
             F  1  1.0
                     6.8754380000      1.0000000000
             F  1  1.0
                     2.6443990000      1.0000000000
             F  1  1.0
                     1.0170770000      1.0000000000
             F  1  1.0
                     0.3911830000      1.0000000000
             F  1  1.0
                     0.1504550000      1.0000000000
            ****
            ! Basis set for element : Es
            -Es 0
             S  9  1.0
                68291966.01786400      0.0382073668
                31041802.73539300     -0.0256507539
                14109910.33426900      0.0701024687
                6413595.606486000      0.0017819093
                2915270.730221000      0.1029136072
                1325123.059191000      0.0780899367
                602328.6632690000      0.2014326209
                273785.7560310000      0.2582241751
                124448.0709230000      0.4761632255
             S  1  1.0
                 56567.3049650000      1.0000000000
             S  1  1.0
                 25712.4113480000      1.0000000000
             S  1  1.0
                 11687.4597040000      1.0000000000
             S  1  1.0
                  5312.4816830000      1.0000000000
             S  1  1.0
                  2414.7644020000      1.0000000000
             S  1  1.0
                  1097.6201830000      1.0000000000
             S  1  1.0
                   498.9182650000      1.0000000000
             S  1  1.0
                   226.7810290000      1.0000000000
             S  1  1.0
                   103.0822860000      1.0000000000
             S  1  1.0
                    46.8555850000      1.0000000000
             S  1  1.0
                    21.2979930000      1.0000000000
             S  1  1.0
                     9.6809060000      1.0000000000
             S  1  1.0
                     4.4004120000      1.0000000000
             S  1  1.0
                     2.0001870000      1.0000000000
             S  1  1.0
                     0.9091760000      1.0000000000
             S  1  1.0
                     0.4132620000      1.0000000000
             S  1  1.0
                     0.1878460000      1.0000000000
             S  1  1.0
                     0.0853850000      1.0000000000
             S  1  1.0
                     0.0388110000      1.0000000000
             S  1  1.0
                     0.0176410000      1.0000000000
             P  8  1.0
                980851.9776920000      0.0041332085
                408688.3240390000      0.0010149594
                170286.8016830000      0.0104569563
                 70952.8340340000      0.0150160479
                 29563.6808480000      0.0426004057
                 12318.2003530000      0.0988108855
                  5132.5834810000      0.2673716902
                  2138.5764500000      0.6974916631
             P  1  1.0
                   891.0735210000      1.0000000000
             P  1  1.0
                   371.2806340000      1.0000000000
             P  1  1.0
                   154.7002640000      1.0000000000
             P  1  1.0
                    64.4584430000      1.0000000000
             P  1  1.0
                    26.8576850000      1.0000000000
             P  1  1.0
                    11.1907020000      1.0000000000
             P  1  1.0
                     4.6627920000      1.0000000000
             P  1  1.0
                     1.9428300000      1.0000000000
             P  1  1.0
                     0.8095130000      1.0000000000
             P  1  1.0
                     0.3372970000      1.0000000000
             P  1  1.0
                     0.1405400000      1.0000000000
             P  1  1.0
                     0.0585580000      1.0000000000
             D  7  1.0
                 48905.6146030000      0.0001823817
                 19562.2458410000      0.0004339877
                  7824.8983360000      0.0023350216
                  3129.9593350000      0.0103622607
                  1251.9837340000      0.0535412927
                   500.7934940000      0.2369464545
                   200.3173970000      0.7950766376
             D  1  1.0
                    80.1269590000      1.0000000000
             D  1  1.0
                    32.0507840000      1.0000000000
             D  1  1.0
                    12.8203130000      1.0000000000
             D  1  1.0
                     5.1281250000      1.0000000000
             D  1  1.0
                     2.0512500000      1.0000000000
             D  1  1.0
                     0.8205000000      1.0000000000
             D  1  1.0
                     0.3282000000      1.0000000000
             D  1  1.0
                     0.1312800000      1.0000000000
             D  1  1.0
                     0.0525120000      1.0000000000
             F  6  1.0
                  5719.1357660000      0.0000613354
                  2199.6676020000      0.0004622721
                   846.0260010000      0.0041780067
                   325.3946160000      0.0355948244
                   125.1517750000      0.2274579329
                    48.1352980000      0.8339018758
             F  1  1.0
                    18.5135760000      1.0000000000
             F  1  1.0
                     7.1206060000      1.0000000000
             F  1  1.0
                     2.7386950000      1.0000000000
             F  1  1.0
                     1.0533440000      1.0000000000
             F  1  1.0
                     0.4051320000      1.0000000000
             F  1  1.0
                     0.1558200000      1.0000000000
            ****
            ! Basis set for element : Fm
            -Fm 0
             S  9  1.0
                69690927.07216800      0.0390337818
                31677694.12371300     -0.0262817473
                14398951.87441500      0.0714991707
                6544978.124734000      0.0013993543
                2974990.056697000      0.1044098445
                1352268.207590000      0.0780775752
                614667.3670860000      0.2026492856
                279394.2577660000      0.2574724267
                126997.3898940000      0.4745401221
             S  1  1.0
                 57726.0863150000      1.0000000000
             S  1  1.0
                 26239.1301430000      1.0000000000
             S  1  1.0
                 11926.8773380000      1.0000000000
             S  1  1.0
                  5421.3078810000      1.0000000000
             S  1  1.0
                  2464.2308550000      1.0000000000
             S  1  1.0
                  1120.1049340000      1.0000000000
             S  1  1.0
                   509.1386060000      1.0000000000
             S  1  1.0
                   231.4266390000      1.0000000000
             S  1  1.0
                   105.1939270000      1.0000000000
             S  1  1.0
                    47.8154210000      1.0000000000
             S  1  1.0
                    21.7342820000      1.0000000000
             S  1  1.0
                     9.8792190000      1.0000000000
             S  1  1.0
                     4.4905540000      1.0000000000
             S  1  1.0
                     2.0411610000      1.0000000000
             S  1  1.0
                     0.9278000000      1.0000000000
             S  1  1.0
                     0.4217270000      1.0000000000
             S  1  1.0
                     0.1916940000      1.0000000000
             S  1  1.0
                     0.0871340000      1.0000000000
             S  1  1.0
                     0.0396060000      1.0000000000
             S  1  1.0
                     0.0180030000      1.0000000000
             P  8  1.0
                1001894.089886000      0.0042412402
                417455.8707860000      0.0010338777
                173939.9461610000      0.0106883016
                 72474.9775670000      0.0152652560
                 30197.9073200000      0.0431965823
                 12582.4613830000      0.0996362565
                  5242.6922430000      0.2682558591
                  2184.4551010000      0.6957747230
             P  1  1.0
                   910.1896260000      1.0000000000
             P  1  1.0
                   379.2456770000      1.0000000000
             P  1  1.0
                   158.0190320000      1.0000000000
             P  1  1.0
                    65.8412630000      1.0000000000
             P  1  1.0
                    27.4338600000      1.0000000000
             P  1  1.0
                    11.4307750000      1.0000000000
             P  1  1.0
                     4.7628230000      1.0000000000
             P  1  1.0
                     1.9845100000      1.0000000000
             P  1  1.0
                     0.8268790000      1.0000000000
             P  1  1.0
                     0.3445330000      1.0000000000
             P  1  1.0
                     0.1435550000      1.0000000000
             P  1  1.0
                     0.0598150000      1.0000000000
             D  7  1.0
                 50085.1221850000      0.0001861691
                 20034.0488740000      0.0004411335
                  8013.6195500000      0.0023637654
                  3205.4478200000      0.0104412302
                  1282.1791280000      0.0537215840
                   512.8716510000      0.2370898560
                   205.1486600000      0.7948562136
             D  1  1.0
                    82.0594640000      1.0000000000
             D  1  1.0
                    32.8237860000      1.0000000000
             D  1  1.0
                    13.1295140000      1.0000000000
             D  1  1.0
                     5.2518060000      1.0000000000
             D  1  1.0
                     2.1007220000      1.0000000000
             D  1  1.0
                     0.8402890000      1.0000000000
             D  1  1.0
                     0.3361160000      1.0000000000
             D  1  1.0
                     0.1344460000      1.0000000000
             D  1  1.0
                     0.0537780000      1.0000000000
             F  6  1.0
                  5918.7118140000      0.0000610840
                  2276.4276210000      0.0004612776
                   875.5490850000      0.0041350354
                   336.7496480000      0.0352838640
                   129.5190950000      0.2261506375
                    49.8150370000      0.8350176085
             F  1  1.0
                    19.1596290000      1.0000000000
             F  1  1.0
                     7.3690880000      1.0000000000
             F  1  1.0
                     2.8342650000      1.0000000000
             F  1  1.0
                     1.0901020000      1.0000000000
             F  1  1.0
                     0.4192700000      1.0000000000
             F  1  1.0
                     0.1612580000      1.0000000000
            ****
            ! Basis set for element : Md
            -Md 0
             S  9  1.0
                71095290.12593000      0.0398891130
                32316040.96633200     -0.0269360781
                14689109.53015100      0.0729421777
                6676867.968250000      0.0009979576
                3034939.985568000      0.1059486225
                1379518.175258000      0.0780503541
                627053.7160270000      0.2038905511
                285024.4163760000      0.2566864307
                129556.5528980000      0.4728994876
             S  1  1.0
                 58889.3422260000      1.0000000000
             S  1  1.0
                 26767.8828300000      1.0000000000
             S  1  1.0
                 12167.2194680000      1.0000000000
             S  1  1.0
                  5530.5543040000      1.0000000000
             S  1  1.0
                  2513.8883200000      1.0000000000
             S  1  1.0
                  1142.6765090000      1.0000000000
             S  1  1.0
                   519.3984130000      1.0000000000
             S  1  1.0
                   236.0901880000      1.0000000000
             S  1  1.0
                   107.3137220000      1.0000000000
             S  1  1.0
                    48.7789640000      1.0000000000
             S  1  1.0
                    22.1722570000      1.0000000000
             S  1  1.0
                    10.0782980000      1.0000000000
             S  1  1.0
                     4.5810450000      1.0000000000
             S  1  1.0
                     2.0822930000      1.0000000000
             S  1  1.0
                     0.9464970000      1.0000000000
             S  1  1.0
                     0.4302260000      1.0000000000
             S  1  1.0
                     0.1955570000      1.0000000000
             S  1  1.0
                     0.0888900000      1.0000000000
             S  1  1.0
                     0.0404040000      1.0000000000
             S  1  1.0
                     0.0183660000      1.0000000000
             P  8  1.0
                1023192.458988000      0.0043518001
                426330.1912450000      0.0010530818
                177637.5796850000      0.0109241630
                 74015.6582020000      0.0155178550
                 30839.8575840000      0.0437998927
                 12849.9406600000      0.1004668336
                  5354.1419420000      0.2691407353
                  2230.8924760000      0.6940452684
             P  1  1.0
                   929.5385320000      1.0000000000
             P  1  1.0
                   387.3077210000      1.0000000000
             P  1  1.0
                   161.3782170000      1.0000000000
             P  1  1.0
                    67.2409240000      1.0000000000
             P  1  1.0
                    28.0170520000      1.0000000000
             P  1  1.0
                    11.6737720000      1.0000000000
             P  1  1.0
                     4.8640710000      1.0000000000
             P  1  1.0
                     2.0266960000      1.0000000000
             P  1  1.0
                     0.8444570000      1.0000000000
             P  1  1.0
                     0.3518570000      1.0000000000
             P  1  1.0
                     0.1466070000      1.0000000000
             P  1  1.0
                     0.0610860000      1.0000000000
             D  7  1.0
                 51278.5205840000      0.0001900304
                 20511.4082340000      0.0004484251
                  8204.5632930000      0.0023930088
                  3281.8253170000      0.0105220498
                  1312.7301270000      0.0539072106
                   525.0920510000      0.2372466561
                   210.0368200000      0.7946214265
             D  1  1.0
                    84.0147280000      1.0000000000
             D  1  1.0
                    33.6058910000      1.0000000000
             D  1  1.0
                    13.4423570000      1.0000000000
             D  1  1.0
                     5.3769430000      1.0000000000
             D  1  1.0
                     2.1507770000      1.0000000000
             D  1  1.0
                     0.8603110000      1.0000000000
             D  1  1.0
                     0.3441240000      1.0000000000
             D  1  1.0
                     0.1376500000      1.0000000000
             D  1  1.0
                     0.0550600000      1.0000000000
             F  6  1.0
                  6120.8574960000      0.0000608811
                  2354.1759600000      0.0004606143
                   905.4522920000      0.0040954206
                   348.2508820000      0.0349945988
                   133.9426470000      0.2249072419
                    51.5164030000      0.8360750168
             F  1  1.0
                    19.8140010000      1.0000000000
             F  1  1.0
                     7.6207700000      1.0000000000
             F  1  1.0
                     2.9310650000      1.0000000000
             F  1  1.0
                     1.1273330000      1.0000000000
             F  1  1.0
                     0.4335900000      1.0000000000
             F  1  1.0
                     0.1667650000      1.0000000000
            ****
            ! Basis set for element : No
            -No 0
             S  9  1.0
                72522948.25117100      0.0407748606
                32964976.47780500     -0.0276149861
                14984080.21718400      0.0744338617
                6810945.553265000      0.0005766671
                3095884.342393000      0.1075320682
                1407220.155633000      0.0780074140
                639645.5252880000      0.2051576486
                290747.9660400000      0.2558644588
                132158.1663820000      0.4712404642
             S  1  1.0
                 60071.8938100000      1.0000000000
             S  1  1.0
                 27305.4062770000      1.0000000000
             S  1  1.0
                 12411.5483080000      1.0000000000
             S  1  1.0
                  5641.6128670000      1.0000000000
             S  1  1.0
                  2564.3694850000      1.0000000000
             S  1  1.0
                  1165.6224930000      1.0000000000
             S  1  1.0
                   529.8284060000      1.0000000000
             S  1  1.0
                   240.8310940000      1.0000000000
             S  1  1.0
                   109.4686790000      1.0000000000
             S  1  1.0
                    49.7584900000      1.0000000000
             S  1  1.0
                    22.6174960000      1.0000000000
             S  1  1.0
                    10.2806800000      1.0000000000
             S  1  1.0
                     4.6730360000      1.0000000000
             S  1  1.0
                     2.1241070000      1.0000000000
             S  1  1.0
                     0.9655030000      1.0000000000
             S  1  1.0
                     0.4388650000      1.0000000000
             S  1  1.0
                     0.1994840000      1.0000000000
             S  1  1.0
                     0.0906750000      1.0000000000
             S  1  1.0
                     0.0412160000      1.0000000000
             S  1  1.0
                     0.0187340000      1.0000000000
             P  8  1.0
                1044695.317505000      0.0044648922
                435289.7156270000      0.0010725714
                181370.7148450000      0.0111645278
                 75571.1311850000      0.0157738043
                 31487.9713270000      0.0444103084
                 13119.9880530000      0.1013026162
                  5466.6616890000      0.2700270522
                  2277.7757040000      0.6923025030
             P  1  1.0
                   949.0732100000      1.0000000000
             P  1  1.0
                   395.4471710000      1.0000000000
             P  1  1.0
                   164.7696540000      1.0000000000
             P  1  1.0
                    68.6540230000      1.0000000000
             P  1  1.0
                    28.6058430000      1.0000000000
             P  1  1.0
                    11.9191010000      1.0000000000
             P  1  1.0
                     4.9662920000      1.0000000000
             P  1  1.0
                     2.0692880000      1.0000000000
             P  1  1.0
                     0.8622030000      1.0000000000
             P  1  1.0
                     0.3592510000      1.0000000000
             P  1  1.0
                     0.1496880000      1.0000000000
             P  1  1.0
                     0.0623700000      1.0000000000
             D  7  1.0
                 52485.5878850000      0.0001939672
                 20994.2351540000      0.0004558647
                  8397.6940620000      0.0024227611
                  3359.0776250000      0.0106047308
                  1343.6310500000      0.0540982091
                   537.4524200000      0.2374169324
                   214.9809680000      0.7943721750
             D  1  1.0
                    85.9923870000      1.0000000000
             D  1  1.0
                    34.3969550000      1.0000000000
             D  1  1.0
                    13.7587820000      1.0000000000
             D  1  1.0
                     5.5035130000      1.0000000000
             D  1  1.0
                     2.2014050000      1.0000000000
             D  1  1.0
                     0.8805620000      1.0000000000
             D  1  1.0
                     0.3522250000      1.0000000000
             D  1  1.0
                     0.1408900000      1.0000000000
             D  1  1.0
                     0.0563560000      1.0000000000
             F  6  1.0
                  6334.4566490000      0.0000606051
                  2436.3294800000      0.0004596386
                   937.0498000000      0.0040517232
                   360.4037690000      0.0346769906
                   138.6168340000      0.2235293511
                    53.3141670000      0.8372440483
             F  1  1.0
                    20.5054490000      1.0000000000
             F  1  1.0
                     7.8867110000      1.0000000000
             F  1  1.0
                     3.0333500000      1.0000000000
             F  1  1.0
                     1.1666730000      1.0000000000
             F  1  1.0
                     0.4487200000      1.0000000000
             F  1  1.0
                     0.1725850000      1.0000000000
            ****
            ! Basis set for element : Lr
            -Lr 0
             S  9  1.0
                73963782.78320600      0.0416924538
                33619901.26509300     -0.0283196623
                15281773.30231500      0.0759764420
                6946260.591961000      0.0001344127
                3157391.178164000      0.1091620804
                1435177.808256000      0.0779477770
                652353.5492070000      0.2064516167
                296524.3405490000      0.2550048856
                134783.7911590000      0.4695625357
             S  1  1.0
                 61265.3596180000      1.0000000000
             S  1  1.0
                 27847.8907350000      1.0000000000
             S  1  1.0
                 12658.1321520000      1.0000000000
             S  1  1.0
                  5753.6964330000      1.0000000000
             S  1  1.0
                  2615.3165600000      1.0000000000
             S  1  1.0
                  1188.7802550000      1.0000000000
             S  1  1.0
                   540.3546610000      1.0000000000
             S  1  1.0
                   245.6157550000      1.0000000000
             S  1  1.0
                   111.6435250000      1.0000000000
             S  1  1.0
                    50.7470570000      1.0000000000
             S  1  1.0
                    23.0668440000      1.0000000000
             S  1  1.0
                    10.4849290000      1.0000000000
             S  1  1.0
                     4.7658770000      1.0000000000
             S  1  1.0
                     2.1663080000      1.0000000000
             S  1  1.0
                     0.9846850000      1.0000000000
             S  1  1.0
                     0.4475840000      1.0000000000
             S  1  1.0
                     0.2034470000      1.0000000000
             S  1  1.0
                     0.0924760000      1.0000000000
             S  1  1.0
                     0.0420350000      1.0000000000
             S  1  1.0
                     0.0191070000      1.0000000000
             P  8  1.0
                1066386.172543000      0.0045805752
                444327.5718930000      0.0010923505
                185136.4882890000      0.0114094860
                 77140.2034540000      0.0160331521
                 32141.7514390000      0.0450279439
                 13392.3964330000      0.1021436966
                  5580.1651800000      0.2709149807
                  2325.0688250000      0.6905460164
             P  1  1.0
                   968.7786770000      1.0000000000
             P  1  1.0
                   403.6577820000      1.0000000000
             P  1  1.0
                   168.1907430000      1.0000000000
             P  1  1.0
                    70.0794760000      1.0000000000
             P  1  1.0
                    29.1997820000      1.0000000000
             P  1  1.0
                    12.1665760000      1.0000000000
             P  1  1.0
                     5.0694070000      1.0000000000
             P  1  1.0
                     2.1122530000      1.0000000000
             P  1  1.0
                     0.8801050000      1.0000000000
             P  1  1.0
                     0.3667110000      1.0000000000
             P  1  1.0
                     0.1527960000      1.0000000000
             P  1  1.0
                     0.0636650000      1.0000000000
             D  7  1.0
                 53706.9942560000      0.0001979823
                 21482.7977020000      0.0004634382
                  8593.1190810000      0.0024530344
                  3437.2476320000      0.0106890240
                  1374.8990530000      0.0542940150
                   549.9596210000      0.2375962102
                   219.9838480000      0.7941125739
             D  1  1.0
                    87.9935390000      1.0000000000
             D  1  1.0
                    35.1974160000      1.0000000000
             D  1  1.0
                    14.0789660000      1.0000000000
             D  1  1.0
                     5.6315870000      1.0000000000
             D  1  1.0
                     2.2526350000      1.0000000000
             D  1  1.0
                     0.9010540000      1.0000000000
             D  1  1.0
                     0.3604220000      1.0000000000
             D  1  1.0
                     0.1441690000      1.0000000000
             D  1  1.0
                     0.0576670000      1.0000000000
             F  6  1.0
                  6543.7113860000      0.0000604625
                  2516.8120720000      0.0004594572
                   968.0046430000      0.0040165681
                   372.3094780000      0.0344165711
                   143.1959530000      0.2223536006
                    55.0753670000      0.8382365256
             F  1  1.0
                    21.1828330000      1.0000000000
             F  1  1.0
                     8.1472440000      1.0000000000
             F  1  1.0
                     3.1335550000      1.0000000000
             F  1  1.0
                     1.2052140000      1.0000000000
             F  1  1.0
                     0.4635440000      1.0000000000
             F  1  1.0
                     0.1782860000      1.0000000000
            ****
 AtFile(1): /home/ik/gaussian09/An-SARC-pol.g09bas
            ! SARC g polarization function for actinides
            ! This can just be included as well as the main SARC DKH file, it adds them on.
            -Ac 0
             G  1  1.0
                     0.7100250000      1.0000000000
            ****
            -Th 0
             G  1  1.0
                     0.7422170000      1.0000000000
            ****
            -Pa 0
             G  1  1.0
                     0.7746840000      1.0000000000
            ****
            -U  0
             G  1  1.0
                     0.8077110000      1.0000000000
            ****
            -Np 0
             G  1  1.0
                     0.8412210000      1.0000000000
            ****
            -Pu 0
[...]
 Coeff:      0.610D+00-0.402D+00 0.576D-01 0.903D+00 0.940D+00 0.440D+01
 Coeff:     -0.675D+01 0.107D+01 0.361D+00
 Gap=     0.105 Goal=     0.100 Shift=    0.000
 Gap=     0.159 Goal=     0.100 Shift=    0.000
 RMSDP=5.47D-07 MaxDP=1.36D-04 DE= 1.89D-07 OVMax= 8.65D-04

 Cycle  47  Pass 1  IDiag  1:
 RMSU=  2.96D-07    CP:  1.00D+00 -3.00D+00 -1.88D+00 -3.00D+00 -3.00D+00
                    CP:  3.00D+00  3.00D+00
 E= -29850.2464042286     Delta-E=        0.000000133143 Rises=F Damp=F
 DIIS: error= 7.26D-06 at cycle  47 NSaved=  16.
 NSaved=16 IEnMin=13 EnMin= -29850.2464047115     IErMin= 4 ErrMin= 6.54D-06
 ErrMax= 7.26D-06 EMaxC= 1.00D+00 BMatC= 1.42D-08 BMatP= 1.42D-08
 IDIUse=1 WtCom= 1.00D+00 WtEn= 0.00D+00
 Coeff-Com: -0.754D-01 0.658D-01 0.881D-01-0.227D-02-0.125D+00-0.174D+00
 Coeff-Com:  0.143D+00-0.133D+01-0.465D+00 0.111D+01 0.138D+01 0.642D+01
 Coeff-Com: -0.923D+01 0.160D+01 0.624D+00 0.963D+00
 Coeff:     -0.754D-01 0.658D-01 0.881D-01-0.227D-02-0.125D+00-0.174D+00
 Coeff:      0.143D+00-0.133D+01-0.465D+00 0.111D+01 0.138D+01 0.642D+01
 Coeff:     -0.923D+01 0.160D+01 0.624D+00 0.963D+00
 Gap=     0.105 Goal=     0.100 Shift=    0.000
 Gap=     0.159 Goal=     0.100 Shift=    0.000
 RMSDP=1.07D-06 MaxDP=2.71D-04 DE= 1.33D-07 OVMax= 1.69D-03

 Cycle  48  Pass 1  IDiag  1:
 RMSU=  5.06D-07    CP:  1.00D+00 -3.00D+00 -3.00D+00 -3.00D+00 -3.00D+00
                    CP:  3.00D+00  3.00D+00  3.00D+00
 E= -29850.2464039635     Delta-E=        0.000000265150 Rises=F Damp=F
 DIIS: error= 7.19D-06 at cycle  48 NSaved=  17.
 NSaved=17 IEnMin=13 EnMin= -29850.2464047115     IErMin= 4 ErrMin= 6.54D-06
 ErrMax= 7.19D-06 EMaxC= 1.00D+00 BMatC= 1.44D-08 BMatP= 1.42D-08
 IDIUse=1 WtCom= 1.00D+00 WtEn= 0.00D+00
 Coeff-Com: -0.109D+00 0.786D-01 0.107D+00 0.640D-01-0.847D-01-0.313D+00
 Coeff-Com: -0.493D-01-0.114D+01-0.462D+00 0.656D+00 0.103D+01 0.338D+01
 Coeff-Com: -0.463D+01 0.652D+00 0.100D-01 0.104D+01 0.767D+00
 Coeff:     -0.109D+00 0.786D-01 0.107D+00 0.640D-01-0.847D-01-0.313D+00
 Coeff:     -0.493D-01-0.114D+01-0.462D+00 0.656D+00 0.103D+01 0.338D+01
 Coeff:     -0.463D+01 0.652D+00 0.100D-01 0.104D+01 0.767D+00
 Gap=     0.105 Goal=     0.100 Shift=    0.000
 Gap=     0.159 Goal=     0.100 Shift=    0.000
 RMSDP=4.24D-07 MaxDP=1.09D-04 DE= 2.65D-07 OVMax= 6.74D-04

 Cycle  49  Pass 1  IDiag  1:
 RMSU=  9.27D-08    CP:  1.00D+00 -3.00D+00 -3.00D+00 -3.00D+00 -3.00D+00
                    CP:  3.00D+00  3.00D+00  3.00D+00  1.81D+00
 E= -29850.2464038597     Delta-E=        0.000000103777 Rises=F Damp=F
 DIIS: error= 7.18D-06 at cycle  49 NSaved=  18.
 NSaved=18 IEnMin=13 EnMin= -29850.2464047115     IErMin= 4 ErrMin= 6.54D-06
 ErrMax= 7.18D-06 EMaxC= 1.00D+00 BMatC= 1.43D-08 BMatP= 1.42D-08
 IDIUse=1 WtCom= 1.00D+00 WtEn= 0.00D+00
 Coeff-Com: -0.103D+00 0.945D-01 0.780D-01 0.105D-01-0.911D-01-0.203D+00
 Coeff-Com:  0.227D+00-0.269D+00-0.147D+00-0.641D-01 0.475D+00-0.218D+00
 Coeff-Com:  0.730D+00-0.842D+00-0.104D+01 0.754D+00 0.499D+00 0.111D+01
 Coeff:     -0.103D+00 0.945D-01 0.780D-01 0.105D-01-0.911D-01-0.203D+00
 Coeff:      0.227D+00-0.269D+00-0.147D+00-0.641D-01 0.475D+00-0.218D+00
 Coeff:      0.730D+00-0.842D+00-0.104D+01 0.754D+00 0.499D+00 0.111D+01
 Gap=     0.105 Goal=     0.100 Shift=    0.000
 Gap=     0.159 Goal=     0.100 Shift=    0.000
 RMSDP=7.51D-07 MaxDP=1.93D-04 DE= 1.04D-07 OVMax= 1.20D-03

 Cycle  50  Pass 1  IDiag  1:
 RMSU=  1.15D-07    CP:  1.00D+00 -3.00D+00 -3.00D+00 -3.00D+00 -3.00D+00
                    CP:  3.00D+00  3.00D+00  3.00D+00  3.00D+00  3.00D+00
 E= -29850.2464036752     Delta-E=        0.000000184526 Rises=F Damp=F
 DIIS: error= 7.15D-06 at cycle  50 NSaved=  19.
 NSaved=19 IEnMin=13 EnMin= -29850.2464047115     IErMin= 4 ErrMin= 6.54D-06
 ErrMax= 7.15D-06 EMaxC= 1.00D+00 BMatC= 1.42D-08 BMatP= 1.42D-08
 IDIUse=1 WtCom= 1.00D+00 WtEn= 0.00D+00
 Coeff-Com: -0.744D-01 0.957D-01 0.305D-01-0.792D-01-0.107D+00 0.168D-01
 Coeff-Com:  0.467D+00 0.725D-01-0.287D-02-0.273D+00 0.541D+00-0.257D+00
 Coeff-Com:  0.116D+01-0.125D+01-0.153D+01 0.510D+00-0.204D+00 0.689D+00
 Coeff-Com:  0.119D+01
 Coeff:     -0.744D-01 0.957D-01 0.305D-01-0.792D-01-0.107D+00 0.168D-01
 Coeff:      0.467D+00 0.725D-01-0.287D-02-0.273D+00 0.541D+00-0.257D+00
 Coeff:      0.116D+01-0.125D+01-0.153D+01 0.510D+00-0.204D+00 0.689D+00
 Coeff:      0.119D+01
 Gap=     0.105 Goal=   None    Shift=    0.000
 Gap=     0.159 Goal=   None    Shift=    0.000
 RMSDP=7.21D-07 MaxDP=1.87D-04 DE= 1.85D-07 OVMax= 1.15D-03

 Cycle  51  Pass 1  IDiag  1:
 RMSU=  5.06D-07    CP:  1.00D+00 -3.00D+00 -3.00D+00 -3.00D+00 -3.00D+00
                    CP:  3.00D+00  3.00D+00  3.00D+00  3.00D+00  3.00D+00
                    CP:  3.00D+00
 E= -29850.2464034985     Delta-E=        0.000000176660 Rises=F Damp=F
 DIIS: error= 7.13D-06 at cycle  51 NSaved=  20.
 NSaved=20 IEnMin=13 EnMin= -29850.2464047115     IErMin= 4 ErrMin= 6.54D-06
 ErrMax= 7.13D-06 EMaxC= 1.00D+00 BMatC= 1.41D-08 BMatP= 1.42D-08
 IDIUse=1 WtCom= 1.00D+00 WtEn= 0.00D+00
 Coeff-Com: -0.871D-01 0.689D-01 0.845D-01 0.463D-01-0.201D+00-0.158D+00
 Coeff-Com:  0.642D-01-0.166D+01-0.102D+01 0.114D+01 0.164D+01 0.672D+01
 Coeff-Com: -0.962D+01 0.243D+01 0.747D+00 0.962D+00 0.120D+00-0.247D+01
 Coeff-Com: -0.168D+01 0.387D+01
 Coeff:     -0.871D-01 0.689D-01 0.845D-01 0.463D-01-0.201D+00-0.158D+00
 Coeff:      0.642D-01-0.166D+01-0.102D+01 0.114D+01 0.164D+01 0.672D+01
 Coeff:     -0.962D+01 0.243D+01 0.747D+00 0.962D+00 0.120D+00-0.247D+01
 Coeff:     -0.168D+01 0.387D+01
 Gap=     0.105 Goal=   None    Shift=    0.000
 Gap=     0.159 Goal=   None    Shift=    0.000
 RMSDP=1.92D-06 MaxDP=5.00D-04 DE= 1.77D-07 OVMax= 3.08D-03

 Cycle  52  Pass 1  IDiag  1:
 RMSU=  9.27D-07    CP:  1.00D+00 -3.00D+00 -3.00D+00 -3.00D+00 -3.00D+00
                    CP:  3.00D+00  3.00D+00  3.00D+00  3.00D+00  3.00D+00
                    CP:  3.00D+00  3.00D+00
 E= -29850.2464030330     Delta-E=        0.000000465501 Rises=F Damp=F
 DIIS: error= 7.13D-06 at cycle  52 NSaved=  20.
 NSaved=20 IEnMin=12 EnMin= -29850.2464047115     IErMin= 3 ErrMin= 6.54D-06
 ErrMax= 7.13D-06 EMaxC= 1.00D+00 BMatC= 1.42D-08 BMatP= 1.41D-08
 IDIUse=1 WtCom= 1.00D+00 WtEn= 0.00D+00
 Large coefficients: NSaved= 20 BigCof=   27.56 CofMax=   10.00 Det=-1.69D-13
 Inversion failed.  Reducing to 19 matrices.
 Large coefficients: NSaved= 19 BigCof=   22.79 CofMax=   10.00 Det=-2.32D-13
 Inversion failed.  Reducing to 18 matrices.
 Large coefficients: NSaved= 18 BigCof=   12.13 CofMax=   10.00 Det=-2.61D-13
 Inversion failed.  Reducing to 17 matrices.
 Coeff-Com:  0.142D-01-0.852D-01-0.193D+00 0.889D-01 0.805D+00 0.738D+00
 Coeff-Com:  0.170D+00-0.636D+00 0.192D+00 0.851D+00-0.761D+00-0.616D+00
 Coeff-Com: -0.961D+00 0.190D+00-0.786D+00 0.102D+01 0.972D+00
 Coeff:      0.142D-01-0.852D-01-0.193D+00 0.889D-01 0.805D+00 0.738D+00
 Coeff:      0.170D+00-0.636D+00 0.192D+00 0.851D+00-0.761D+00-0.616D+00
 Coeff:     -0.961D+00 0.190D+00-0.786D+00 0.102D+01 0.972D+00
 Gap=     0.105 Goal=   None    Shift=    0.000
 Gap=     0.159 Goal=   None    Shift=    0.000
 RMSDP=1.96D-06 MaxDP=5.09D-04 DE= 4.66D-07 OVMax= 3.13D-03

 Cycle  53  Pass 1  IDiag  1:
 RMSU=  3.59D-07    CP:  1.00D+00 -3.00D+00 -3.00D+00 -3.00D+00 -3.00D+00
                    CP:  3.00D+00  3.00D+00  3.00D+00  3.00D+00  3.00D+00
                    CP:  3.00D+00  3.00D+00  3.00D+00
 E= -29850.2464025574     Delta-E=        0.000000475673 Rises=F Damp=F
 DIIS: error= 7.10D-06 at cycle  53 NSaved=  18.
 NSaved=18 IEnMin=11 EnMin= -29850.2464047115     IErMin= 2 ErrMin= 6.54D-06
 ErrMax= 7.10D-06 EMaxC= 1.00D+00 BMatC= 1.40D-08 BMatP= 1.41D-08
 IDIUse=1 WtCom= 1.00D+00 WtEn= 0.00D+00
 Coeff-Com:  0.816D-01-0.115D-01-0.450D+00-0.974D-01 0.803D+00 0.818D+00
 Coeff-Com:  0.451D-01-0.103D+01 0.174D+00 0.116D+01-0.172D+01 0.186D+00
 Coeff-Com: -0.436D+00 0.365D+00-0.844D+00-0.685D+00 0.152D+01 0.113D+01
 Coeff:      0.816D-01-0.115D-01-0.450D+00-0.974D-01 0.803D+00 0.818D+00
 Coeff:      0.451D-01-0.103D+01 0.174D+00 0.116D+01-0.172D+01 0.186D+00
 Coeff:     -0.436D+00 0.365D+00-0.844D+00-0.685D+00 0.152D+01 0.113D+01
 Gap=     0.105 Goal=   None    Shift=    0.000
 Gap=     0.159 Goal=   None    Shift=    0.000
 RMSDP=6.09D-06 MaxDP=1.60D-03 DE= 4.76D-07 OVMax= 9.74D-03

 Cycle  54  Pass 1  IDiag  1:
 RMSU=  5.86D-06    CP:  1.00D+00 -3.00D+00 -3.00D+00 -3.00D+00 -3.00D+00
                    CP:  3.00D+00  3.00D+00  3.00D+00  3.00D+00  3.00D+00
                    CP:  3.00D+00  3.00D+00  3.00D+00  3.00D+00
 E= -29850.2464011107     Delta-E=        0.000001446679 Rises=F Damp=F
 DIIS: error= 6.90D-06 at cycle  54 NSaved=  19.
 NSaved=19 IEnMin=11 EnMin= -29850.2464047115     IErMin= 2 ErrMin= 6.54D-06
 ErrMax= 6.90D-06 EMaxC= 1.00D+00 BMatC= 1.57D-08 BMatP= 1.40D-08
 IDIUse=1 WtCom= 1.00D+00 WtEn= 0.00D+00
 Coeff-Com:  0.807D-01-0.154D-01-0.474D+00-0.998D-01 0.855D+00 0.917D+00
 Coeff-Com:  0.899D-01-0.108D+01 0.135D+00 0.116D+01-0.179D+01 0.250D+00
 Coeff-Com: -0.399D+00 0.349D+00-0.896D+00-0.744D+00 0.147D+01 0.110D+01
 Coeff-Com:  0.905D-01
 Coeff:      0.807D-01-0.154D-01-0.474D+00-0.998D-01 0.855D+00 0.917D+00
 Coeff:      0.899D-01-0.108D+01 0.135D+00 0.116D+01-0.179D+01 0.250D+00
 Coeff:     -0.399D+00 0.349D+00-0.896D+00-0.744D+00 0.147D+01 0.110D+01
 Coeff:      0.905D-01
 Gap=     0.105 Goal=   None    Shift=    0.000
 Gap=     0.159 Goal=   None    Shift=    0.000
 RMSDP=4.44D-07 MaxDP=1.17D-04 DE= 1.45D-06 OVMax= 7.11D-04

 Cycle  55  Pass 1  IDiag  1:
 RMSU=  5.45D-08    CP:  1.00D+00 -3.00D+00 -3.00D+00 -3.00D+00 -3.00D+00
                    CP:  3.00D+00  3.00D+00  3.00D+00  3.00D+00  3.00D+00
                    CP:  3.00D+00  3.00D+00  3.00D+00  3.00D+00  1.07D+00
 E= -29850.2464010058     Delta-E=        0.000000104847 Rises=F Damp=F
 DIIS: error= 6.90D-06 at cycle  55 NSaved=  20.
 NSaved=20 IEnMin=11 EnMin= -29850.2464047115     IErMin= 2 ErrMin= 6.54D-06
 ErrMax= 6.90D-06 EMaxC= 1.00D+00 BMatC= 1.54D-08 BMatP= 1.40D-08
 IDIUse=1 WtCom= 1.00D+00 WtEn= 0.00D+00
 Large coefficients: NSaved= 20 BigCof=   44.69 CofMax=   10.00 Det=-2.36D-13
 Inversion failed.  Reducing to 19 matrices.
 Large coefficients: NSaved= 19 BigCof=   31.73 CofMax=   10.00 Det=-2.96D-13
 Inversion failed.  Reducing to 18 matrices.
 Large coefficients: NSaved= 18 BigCof=   29.42 CofMax=   10.00 Det=-3.14D-13
 Inversion failed.  Reducing to 17 matrices.
 Large coefficients: NSaved= 17 BigCof=   31.63 CofMax=   10.00 Det=-3.15D-13
 Inversion failed.  Reducing to 16 matrices.
 Large coefficients: NSaved= 16 BigCof=   21.10 CofMax=   10.00 Det=-4.37D-13
 Inversion failed.  Reducing to 15 matrices.
 Large coefficients: NSaved= 15 BigCof=   12.17 CofMax=   10.00 Det=-6.00D-13
 Inversion failed.  Reducing to 14 matrices.
 Large coefficients: NSaved= 14 BigCof=   12.12 CofMax=   10.00 Det=-6.03D-13
 Inversion failed.  Reducing to 13 matrices.
 Large coefficients: NSaved= 13 BigCof=   11.73 CofMax=   10.00 Det=-6.08D-13
 Inversion failed.  Reducing to 12 matrices.
 Large coefficients: NSaved= 12 BigCof=   11.74 CofMax=   10.00 Det=-7.23D-13
 Inversion failed.  Reducing to 11 matrices.
 Large coefficients: NSaved= 11 BigCof=   11.65 CofMax=   10.00 Det=-7.63D-13
 Inversion failed.  Reducing to 10 matrices.
 Large coefficients: NSaved= 10 BigCof=   11.69 CofMax=   10.00 Det=-1.17D-12
 Inversion failed.  Reducing to  9 matrices.
 Large coefficients: NSaved=  9 BigCof=   11.74 CofMax=   10.00 Det=-1.18D-12
 Inversion failed.  Reducing to  8 matrices.
 Large coefficients: NSaved=  8 BigCof=   11.68 CofMax=   10.00 Det=-1.84D-12
 Inversion failed.  Reducing to  7 matrices.
 Large coefficients: NSaved=  7 BigCof=   11.74 CofMax=   10.00 Det=-2.18D-12
 Inversion failed.  Reducing to  6 matrices.
 Large coefficients: NSaved=  6 BigCof=   11.57 CofMax=   10.00 Det=-3.97D-12
 Inversion failed.  Reducing to  5 matrices.
 Large coefficients: NSaved=  5 BigCof=   11.58 CofMax=   10.00 Det=-3.97D-12
 Inversion failed.  Reducing to  4 matrices.
 Large coefficients: NSaved=  4 BigCof=   11.35 CofMax=   10.00 Det=-4.05D-12
 Inversion failed.  Reducing to  3 matrices.
 Large coefficients: NSaved=  3 BigCof=   10.72 CofMax=   10.00 Det=-6.77D-12
 Inversion failed.  Reducing to  2 matrices.
 Large coefficients: NSaved=  2 BigCof=   14.08 CofMax=   10.00 Det=-9.98D-12
 Coeff-Com: -0.131D+02 0.141D+02
 Coeff:     -0.131D+02 0.141D+02
 Gap=     0.105 Goal=   None    Shift=    0.000
 Gap=     0.159 Goal=   None    Shift=    0.000
 RMSDP=5.56D-06 MaxDP=1.48D-03 DE= 1.05D-07 OVMax= 8.90D-03

 Cycle  56  Pass 1  IDiag  1:
 RMSU=  5.73D-07    CP:  1.00D+00 -3.00D+00 -3.00D+00 -3.00D+00 -3.00D+00
                    CP:  3.00D+00  3.00D+00  3.00D+00  3.00D+00  3.00D+00
                    CP:  3.00D+00  3.00D+00  3.00D+00  3.00D+00  2.01D+00
                    CP:  3.00D+00
 E= -29850.2463997216     Delta-E=        0.000001284207 Rises=F Damp=F
 DIIS: error= 7.10D-06 at cycle  56 NSaved=   3.
 NSaved= 3 IEnMin= 1 EnMin= -29850.2464011107     IErMin= 1 ErrMin= 6.90D-06
 ErrMax= 7.10D-06 EMaxC= 1.00D+00 BMatC= 1.54D-08 BMatP= 1.54D-08
 IDIUse=1 WtCom= 1.00D+00 WtEn= 0.00D+00
 Large coefficients: NSaved=  3 BigCof=   10.57 CofMax=   10.00 Det=-8.92D-12
 Inversion failed.  Reducing to  2 matrices.
 Coeff-Com:  0.504D+00 0.496D+00
 Coeff:      0.504D+00 0.496D+00
 Gap=     0.105 Goal=   None    Shift=    0.000
 Gap=     0.159 Goal=   None    Shift=    0.000
 RMSDP=3.06D-06 MaxDP=8.11D-04 DE= 1.28D-06 OVMax= 4.89D-03

 Cycle  57  Pass 1  IDiag  1:
 RMSU=  5.00D-08    CP:  1.00D+00 -3.00D+00 -3.00D+00 -3.00D+00 -3.00D+00
                    CP:  3.00D+00  3.00D+00  3.00D+00  3.00D+00  3.00D+00
                    CP:  3.00D+00  3.00D+00  3.00D+00  3.00D+00  1.50D+00
                    CP:  3.00D+00  3.27D-01
 E= -29850.2464004246     Delta-E=       -0.000000702967 Rises=F Damp=F
 DIIS: error= 7.01D-06 at cycle  57 NSaved=   3.
 NSaved= 3 IEnMin= 1 EnMin= -29850.2464010058     IErMin= 1 ErrMin= 6.90D-06
 ErrMax= 7.01D-06 EMaxC= 1.00D+00 BMatC= 1.45D-08 BMatP= 1.54D-08
 IDIUse=1 WtCom= 1.00D+00 WtEn= 0.00D+00
 Coeff-Com:  0.169D+00 0.378D+00 0.453D+00
 Coeff:      0.169D+00 0.378D+00 0.453D+00
 Gap=     0.105 Goal=   None    Shift=    0.000
 Gap=     0.159 Goal=   None    Shift=    0.000
 RMSDP=4.77D-07 MaxDP=1.28D-04 DE=-7.03D-07 OVMax= 7.64D-04

 Cycle  58  Pass 1  IDiag  1:
 RMSU=  2.40D-08    CP:  1.00D+00 -3.00D+00 -3.00D+00 -3.00D+00 -3.00D+00
                    CP:  3.00D+00  3.00D+00  3.00D+00  3.00D+00  3.00D+00
                    CP:  3.00D+00  3.00D+00  3.00D+00  3.00D+00  1.58D+00
                    CP:  3.00D+00  4.30D-01  8.08D-01
 E= -29850.2464003154     Delta-E=        0.000000109212 Rises=F Damp=F
 DIIS: error= 7.03D-06 at cycle  58 NSaved=   4.
 NSaved= 4 IEnMin= 1 EnMin= -29850.2464010058     IErMin= 1 ErrMin= 6.90D-06
 ErrMax= 7.03D-06 EMaxC= 1.00D+00 BMatC= 1.25D-08 BMatP= 1.45D-08
 IDIUse=1 WtCom= 1.00D+00 WtEn= 0.00D+00
 Coeff-Com: -0.226D+00 0.185D+00 0.251D+00 0.790D+00
 Coeff:     -0.226D+00 0.185D+00 0.251D+00 0.790D+00
 Gap=     0.105 Goal=   None    Shift=    0.000
 Gap=     0.159 Goal=   None    Shift=    0.000
 RMSDP=7.74D-07 MaxDP=2.08D-04 DE= 1.09D-07 OVMax= 1.24D-03

 Cycle  59  Pass 1  IDiag  1:
 RMSU=  1.27D-08    CP:  1.00D+00 -3.00D+00 -3.00D+00 -3.00D+00 -3.00D+00
                    CP:  3.00D+00  3.00D+00  3.00D+00  3.00D+00  3.00D+00
                    CP:  3.00D+00  3.00D+00  3.00D+00  3.00D+00  1.71D+00
                    CP:  3.00D+00  5.82D-01  1.08D+00  1.15D+00
 E= -29850.2464001378     Delta-E=        0.000000177570 Rises=F Damp=F
 DIIS: error= 7.07D-06 at cycle  59 NSaved=   5.
 NSaved= 5 IEnMin= 1 EnMin= -29850.2464010058     IErMin= 1 ErrMin= 6.90D-06
 ErrMax= 7.07D-06 EMaxC= 1.00D+00 BMatC= 1.22D-08 BMatP= 1.25D-08
 IDIUse=1 WtCom= 1.00D+00 WtEn= 0.00D+00
 Coeff-Com: -0.317D+00 0.645D-01 0.240D-01 0.443D+00 0.786D+00
 Coeff:     -0.317D+00 0.645D-01 0.240D-01 0.443D+00 0.786D+00
 Gap=     0.105 Goal=   None    Shift=    0.000
 Gap=     0.159 Goal=   None    Shift=    0.000
 RMSDP=6.79D-07 MaxDP=1.83D-04 DE= 1.78D-07 OVMax= 1.09D-03

 Cycle  60  Pass 1  IDiag  1:
 Restarting incremental Fock formation.
 E= -29850.2463999808     Delta-E=        0.000000157008 Rises=F Damp=F
 DIIS: error= 7.10D-06 at cycle  60 NSaved=   6.
 NSaved= 6 IEnMin= 1 EnMin= -29850.2464010058     IErMin= 1 ErrMin= 6.90D-06
 ErrMax= 7.10D-06 EMaxC= 1.00D+00 BMatC= 1.21D-08 BMatP= 1.22D-08
 IDIUse=1 WtCom= 1.00D+00 WtEn= 0.00D+00
 Coeff-Com: -0.328D+00 0.552D-01-0.136D+00-0.363D+00 0.289D+00 0.148D+01
 Coeff:     -0.328D+00 0.552D-01-0.136D+00-0.363D+00 0.289D+00 0.148D+01
 Gap=     0.105 Goal=   None    Shift=    0.000
 Gap=     0.159 Goal=   None    Shift=    0.000
 RMSDP=1.86D-06 MaxDP=5.01D-04 DE= 1.57D-07 OVMax= 2.98D-03

 Cycle  61  Pass 1  IDiag  1:
 RMSU=  1.85D-06    CP:  1.00D+00
 E= -29850.2463995579     Delta-E=        0.000000422930 Rises=F Damp=F
 DIIS: error= 7.16D-06 at cycle  61 NSaved=   7.
 NSaved= 7 IEnMin= 1 EnMin= -29850.2464010058     IErMin= 1 ErrMin= 6.90D-06
 ErrMax= 7.16D-06 EMaxC= 1.00D+00 BMatC= 1.20D-08 BMatP= 1.21D-08
 IDIUse=1 WtCom= 1.00D+00 WtEn= 0.00D+00
 Coeff-Com: -0.241D+00 0.350D+00 0.909D-01-0.120D+01-0.249D+01 0.206D+01
 Coeff-Com:  0.243D+01
 Coeff:     -0.241D+00 0.350D+00 0.909D-01-0.120D+01-0.249D+01 0.206D+01
 Coeff:      0.243D+01
 Gap=     0.105 Goal=   None    Shift=    0.000
 Gap=     0.159 Goal=   None    Shift=    0.000
 RMSDP=7.13D-06 MaxDP=1.94D-03 DE= 4.23D-07 OVMax= 1.15D-02

 Cycle  62  Pass 1  IDiag  1:
 RMSU=  3.42D-06    CP:  1.00D+00  3.00D+00
 E= -29850.2463979624     Delta-E=        0.000001595516 Rises=F Damp=F
 DIIS: error= 7.32D-06 at cycle  62 NSaved=   8.
 NSaved= 8 IEnMin= 1 EnMin= -29850.2464010058     IErMin= 1 ErrMin= 6.90D-06
 ErrMax= 7.32D-06 EMaxC= 1.00D+00 BMatC= 1.33D-08 BMatP= 1.20D-08
 IDIUse=1 WtCom= 1.00D+00 WtEn= 0.00D+00
 Coeff-Com: -0.471D+00 0.363D+00 0.197D+00-0.547D+00-0.143D+01 0.552D+00
 Coeff-Com:  0.183D+01 0.504D+00
 Coeff:     -0.471D+00 0.363D+00 0.197D+00-0.547D+00-0.143D+01 0.552D+00
 Coeff:      0.183D+01 0.504D+00
 Gap=     0.105 Goal=   None    Shift=    0.000
 Gap=     0.159 Goal=   None    Shift=    0.000
 RMSDP=2.58D-06 MaxDP=7.04D-04 DE= 1.60D-06 OVMax= 4.14D-03

 Cycle  63  Pass 1  IDiag  1:
 RMSU=  2.77D-08    CP:  1.00D+00  3.00D+00  1.75D+00
 E= -29850.2463973978     Delta-E=        0.000000564542 Rises=F Damp=F
 DIIS: error= 7.34D-06 at cycle  63 NSaved=   9.
 NSaved= 9 IEnMin= 1 EnMin= -29850.2464010058     IErMin= 1 ErrMin= 6.90D-06
 ErrMax= 7.34D-06 EMaxC= 1.00D+00 BMatC= 1.32D-08 BMatP= 1.20D-08
 IDIUse=1 WtCom= 1.00D+00 WtEn= 0.00D+00
 Coeff-Com: -0.725D+00 0.204D+00 0.116D+00 0.422D-01 0.540D+00-0.563D+00
 Coeff-Com:  0.558D+00 0.438D-01 0.784D+00
 Coeff:     -0.725D+00 0.204D+00 0.116D+00 0.422D-01 0.540D+00-0.563D+00
 Coeff:      0.558D+00 0.438D-01 0.784D+00
 Gap=     0.105 Goal=   None    Shift=    0.000
 Gap=     0.159 Goal=   None    Shift=    0.000
 RMSDP=1.48D-06 MaxDP=4.04D-04 DE= 5.65D-07 OVMax= 2.37D-03

 Cycle  64  Pass 1  IDiag  1:
 RMSU=  2.63D-08    CP:  1.00D+00  3.00D+00  2.19D+00  2.00D+00
 E= -29850.2463970802     Delta-E=        0.000000317654 Rises=F Damp=F
 DIIS: error= 7.34D-06 at cycle  64 NSaved=  10.
 NSaved=10 IEnMin= 1 EnMin= -29850.2464010058     IErMin= 1 ErrMin= 6.90D-06
 ErrMax= 7.34D-06 EMaxC= 1.00D+00 BMatC= 1.19D-08 BMatP= 1.20D-08
 IDIUse=1 WtCom= 1.00D+00 WtEn= 0.00D+00
 Coeff-Com: -0.648D+00-0.219D+00-0.216D+00 0.430D+00 0.287D+01-0.103D+01
 Coeff-Com: -0.138D+01-0.107D+01 0.446D+00 0.183D+01
 Coeff:     -0.648D+00-0.219D+00-0.216D+00 0.430D+00 0.287D+01-0.103D+01
 Coeff:     -0.138D+01-0.107D+01 0.446D+00 0.183D+01
 Gap=     0.105 Goal=   None    Shift=    0.000
 Gap=     0.159 Goal=   None    Shift=    0.000
 RMSDP=3.97D-06 MaxDP=1.09D-03 DE= 3.18D-07 OVMax= 6.36D-03

 Cycle  65  Pass 1  IDiag  1:
 RMSU=  1.19D-06    CP:  1.00D+00  3.00D+00  3.00D+00  3.00D+00  3.00D+00
